# vtk DataFile Version 3.0
#This file was generated by the deal.II library on 2022/3/7 at 16:16:12
ASCII
DATASET UNSTRUCTURED_GRID

POINTS 36864 double
-1.76743 20.6913 0
-1.74488 20.5288 0
-1.58428 20.7079 0
-1.5561 20.5439 0
-1.74488 20.5288 0
-1.72233 20.3664 0
-1.5561 20.5439 0
-1.52791 20.3798 0
-1.58428 20.7079 0
-1.5561 20.5439 0
-1.40114 20.7245 0
-1.36732 20.5589 0
-1.5561 20.5439 0
-1.52791 20.3798 0
-1.36732 20.5589 0
-1.33349 20.3933 0
-1.72233 20.3664 0
-1.69978 20.2039 0
-1.52791 20.3798 0
-1.49972 20.2158 0
-1.69978 20.2039 0
-1.67723 20.0414 0
-1.49972 20.2158 0
-1.47153 20.0517 0
-1.52791 20.3798 0
-1.49972 20.2158 0
-1.33349 20.3933 0
-1.29966 20.2277 0
-1.49972 20.2158 0
-1.47153 20.0517 0
-1.29966 20.2277 0
-1.26584 20.0621 0
-1.40114 20.7245 0
-1.36732 20.5589 0
-1.218 20.7411 0
-1.17853 20.5739 0
-1.36732 20.5589 0
-1.33349 20.3933 0
-1.17853 20.5739 0
-1.13907 20.4068 0
-1.218 20.7411 0
-1.17853 20.5739 0
-1.03485 20.7577 0
-0.989753 20.5889 0
-1.17853 20.5739 0
-1.13907 20.4068 0
-0.989753 20.5889 0
-0.944653 20.4202 0
-1.33349 20.3933 0
-1.29966 20.2277 0
-1.13907 20.4068 0
-1.09961 20.2396 0
-1.29966 20.2277 0
-1.26584 20.0621 0
-1.09961 20.2396 0
-1.06014 20.0724 0
-1.13907 20.4068 0
-1.09961 20.2396 0
-0.944653 20.4202 0
-0.899552 20.2515 0
-1.09961 20.2396 0
-1.06014 20.0724 0
-0.899552 20.2515 0
-0.854451 20.0828 0
-2.5 20.625 0
-2.5 20.4688 0
-2.31686 20.6416 0
-2.31122 20.4838 0
-2.5 20.4688 0
-2.5 20.3125 0
-2.31122 20.4838 0
-2.30558 20.326 0
-2.31686 20.6416 0
-2.31122 20.4838 0
-2.13371 20.6582 0
-2.12244 20.4988 0
-2.31122 20.4838 0
-2.30558 20.326 0
-2.12244 20.4988 0
-2.11116 20.3394 0
-2.5 20.3125 0
-2.5 20.1562 0
-2.30558 20.326 0
-2.29994 20.1682 0
-2.5 20.1562 0
-2.5 20 0
-2.29994 20.1682 0
-2.29431 20.0103 0
-2.30558 20.326 0
-2.29994 20.1682 0
-2.11116 20.3394 0
-2.09989 20.1801 0
-2.29994 20.1682 0
-2.29431 20.0103 0
-2.09989 20.1801 0
-2.08861 20.0207 0
-2.13371 20.6582 0
-2.12244 20.4988 0
-1.95057 20.6748 0
-1.93366 20.5138 0
-2.12244 20.4988 0
-2.11116 20.3394 0
-1.93366 20.5138 0
-1.91674 20.3529 0
-1.95057 20.6748 0
-1.93366 20.5138 0
-1.76743 20.6913 0
-1.74488 20.5288 0
-1.93366 20.5138 0
-1.91674 20.3529 0
-1.74488 20.5288 0
-1.72233 20.3664 0
-2.11116 20.3394 0
-2.09989 20.1801 0
-1.91674 20.3529 0
-1.89983 20.192 0
-2.09989 20.1801 0
-2.08861 20.0207 0
-1.89983 20.192 0
-1.88292 20.031 0
-1.91674 20.3529 0
-1.89983 20.192 0
-1.72233 20.3664 0
-1.69978 20.2039 0
-1.89983 20.192 0
-1.88292 20.031 0
-1.69978 20.2039 0
-1.67723 20.0414 0
-2.5 21.25 0
-2.5 21.0938 0
-2.33941 21.2728 0
-2.33377 21.115 0
-2.5 21.0938 0
-2.5 20.9375 0
-2.33377 21.115 0
-2.32813 20.9572 0
-2.33941 21.2728 0
-2.33377 21.115 0
-2.17881 21.2956 0
-2.16754 21.1363 0
-2.33377 21.115 0
-2.32813 20.9572 0
-2.16754 21.1363 0
-2.15626 20.9769 0
-2.5 20.9375 0
-2.5 20.7812 0
-2.32813 20.9572 0
-2.32249 20.7994 0
-2.5 20.7812 0
-2.5 20.625 0
-2.32249 20.7994 0
-2.31686 20.6416 0
-2.32813 20.9572 0
-2.32249 20.7994 0
-2.15626 20.9769 0
-2.14499 20.8175 0
-2.32249 20.7994 0
-2.31686 20.6416 0
-2.14499 20.8175 0
-2.13371 20.6582 0
-2.17881 21.2956 0
-2.16754 21.1363 0
-2.01822 21.3185 0
-2.00131 21.1575 0
-2.16754 21.1363 0
-2.15626 20.9769 0
-2.00131 21.1575 0
-1.9844 20.9966 0
-2.01822 21.3185 0
-2.00131 21.1575 0
-1.85763 21.3413 0
-1.83508 21.1788 0
-2.00131 21.1575 0
-1.9844 20.9966 0
-1.83508 21.1788 0
-1.81253 21.0163 0
-2.15626 20.9769 0
-2.14499 20.8175 0
-1.9844 20.9966 0
-1.96748 20.8357 0
-2.14499 20.8175 0
-2.13371 20.6582 0
-1.96748 20.8357 0
-1.95057 20.6748 0
-1.9844 20.9966 0
-1.96748 20.8357 0
-1.81253 21.0163 0
-1.78998 20.8538 0
-1.96748 20.8357 0
-1.95057 20.6748 0
-1.78998 20.8538 0
-1.76743 20.6913 0
-1.85763 21.3413 0
-1.83508 21.1788 0
-1.69704 21.3641 0
-1.66885 21.2001 0
-1.83508 21.1788 0
-1.81253 21.0163 0
-1.66885 21.2001 0
-1.64066 21.036 0
-1.69704 21.3641 0
-1.66885 21.2001 0
-1.53644 21.3869 0
-1.50262 21.2213 0
-1.66885 21.2001 0
-1.64066 21.036 0
-1.50262 21.2213 0
-1.46879 21.0557 0
-1.81253 21.0163 0
-1.78998 20.8538 0
-1.64066 21.036 0
-1.61247 20.872 0
-1.78998 20.8538 0
-1.76743 20.6913 0
-1.61247 20.872 0
-1.58428 20.7079 0
-1.64066 21.036 0
-1.61247 20.872 0
-1.46879 21.0557 0
-1.43497 20.8901 0
-1.61247 20.872 0
-1.58428 20.7079 0
-1.43497 20.8901 0
-1.40114 20.7245 0
-1.53644 21.3869 0
-1.50262 21.2213 0
-1.37585 21.4098 0
-1.33639 21.2426 0
-1.50262 21.2213 0
-1.46879 21.0557 0
-1.33639 21.2426 0
-1.29692 21.0754 0
-1.37585 21.4098 0
-1.33639 21.2426 0
-1.21526 21.4326 0
-1.17016 21.2639 0
-1.33639 21.2426 0
-1.29692 21.0754 0
-1.17016 21.2639 0
-1.12506 21.0951 0
-1.46879 21.0557 0
-1.43497 20.8901 0
-1.29692 21.0754 0
-1.25746 20.9083 0
-1.43497 20.8901 0
-1.40114 20.7245 0
-1.25746 20.9083 0
-1.218 20.7411 0
-1.29692 21.0754 0
-1.25746 20.9083 0
-1.12506 21.0951 0
-1.07995 20.9264 0
-1.25746 20.9083 0
-1.218 20.7411 0
-1.07995 20.9264 0
-1.03485 20.7577 0
-0.904927 1.56223 0
-0.825001 1.43448 0
-0.758544 1.63061 0
-0.690482 1.49455 0
-0.825001 1.43448 0
-0.745074 1.30674 0
-0.690482 1.49455 0
-0.62242 1.35849 0
-0.758544 1.63061 0
-0.690482 1.49455 0
-0.61216 1.699 0
-0.555963 1.55462 0
-0.690482 1.49455 0
-0.62242 1.35849 0
-0.555963 1.55462 0
-0.499765 1.41025 0
-0.745074 1.30674 0
-0.665148 1.17899 0
-0.62242 1.35849 0
-0.554358 1.22243 0
-0.665148 1.17899 0
-0.585221 1.05124 0
-0.554358 1.22243 0
-0.486296 1.08637 0
-0.62242 1.35849 0
-0.554358 1.22243 0
-0.499765 1.41025 0
-0.443568 1.26587 0
-0.554358 1.22243 0
-0.486296 1.08637 0
-0.443568 1.26587 0
-0.38737 1.1215 0
-0.61216 1.699 0
-0.555963 1.55462 0
-0.465777 1.76738 0
-0.421444 1.61469 0
-0.555963 1.55462 0
-0.499765 1.41025 0
-0.421444 1.61469 0
-0.377111 1.462 0
-0.465777 1.76738 0
-0.421444 1.61469 0
-0.319393 1.83576 0
-0.286925 1.67476 0
-0.421444 1.61469 0
-0.377111 1.462 0
-0.286925 1.67476 0
-0.254456 1.51376 0
-0.499765 1.41025 0
-0.443568 1.26587 0
-0.377111 1.462 0
-0.332778 1.30931 0
-0.443568 1.26587 0
-0.38737 1.1215 0
-0.332778 1.30931 0
-0.288445 1.15663 0
-0.377111 1.462 0
-0.332778 1.30931 0
-0.254456 1.51376 0
-0.221988 1.35276 0
-0.332778 1.30931 0
-0.288445 1.15663 0
-0.221988 1.35276 0
-0.18952 1.19175 0
-1.49046 1.2887 0
-1.36308 1.19421 0
-1.34408 1.35708 0
-1.22856 1.25428 0
-1.36308 1.19421 0
-1.23569 1.09972 0
-1.22856 1.25428 0
-1.11304 1.15147 0
-1.34408 1.35708 0
-1.22856 1.25428 0
-1.19769 1.42547 0
-1.09404 1.31435 0
-1.22856 1.25428 0
-1.11304 1.15147 0
-1.09404 1.31435 0
-0.990383 1.20323 0
-1.23569 1.09972 0
-1.10831 1.00523 0
-1.11304 1.15147 0
-0.997518 1.04867 0
-1.10831 1.00523 0
-0.980923 0.910735 0
-0.997518 1.04867 0
-0.881997 0.945862 0
-1.11304 1.15147 0
-0.997518 1.04867 0
-0.990383 1.20323 0
-0.886728 1.09211 0
-0.997518 1.04867 0
-0.881997 0.945862 0
-0.886728 1.09211 0
-0.783072 0.980989 0
-1.19769 1.42547 0
-1.09404 1.31435 0
-1.05131 1.49385 0
-0.95952 1.37442 0
-1.09404 1.31435 0
-0.990383 1.20323 0
-0.95952 1.37442 0
-0.867729 1.25498 0
-1.05131 1.49385 0
-0.95952 1.37442 0
-0.904927 1.56223 0
-0.825001 1.43448 0
-0.95952 1.37442 0
-0.867729 1.25498 0
-0.825001 1.43448 0
-0.745074 1.30674 0
-0.990383 1.20323 0
-0.886728 1.09211 0
-0.867729 1.25498 0
-0.775938 1.13555 0
-0.886728 1.09211 0
-0.783072 0.980989 0
-0.775938 1.13555 0
-0.684147 1.01612 0
-0.867729 1.25498 0
-0.775938 1.13555 0
-0.745074 1.30674 0
-0.665148 1.17899 0
-0.775938 1.13555 0
-0.684147 1.01612 0
-0.665148 1.17899 0
-0.585221 1.05124 0
-2 1.66667 0
-1.87262 1.57218 0
-1.80616 1.76831 0
-1.69064 1.6655 0
-1.87262 1.57218 0
-1.74523 1.47768 0
-1.69064 1.6655 0
-1.57512 1.56269 0
-1.80616 1.76831 0
-1.69064 1.6655 0
-1.61232 1.86994 0
-1.50866 1.75882 0
-1.69064 1.6655 0
-1.57512 1.56269 0
-1.50866 1.75882 0
-1.40501 1.64771 0
-1.74523 1.47768 0
-1.61785 1.38319 0
-1.57512 1.56269 0
-1.4596 1.45989 0
-1.61785 1.38319 0
-1.49046 1.2887 0
-1.4596 1.45989 0
-1.34408 1.35708 0
-1.57512 1.56269 0
-1.4596 1.45989 0
-1.40501 1.64771 0
-1.30135 1.53659 0
-1.4596 1.45989 0
-1.34408 1.35708 0
-1.30135 1.53659 0
-1.19769 1.42547 0
-1.61232 1.86994 0
-1.50866 1.75882 0
-1.41848 1.97158 0
-1.32668 1.85215 0
-1.50866 1.75882 0
-1.40501 1.64771 0
-1.32668 1.85215 0
-1.23489 1.73272 0
-1.41848 1.97158 0
-1.32668 1.85215 0
-1.22463 2.07322 0
-1.14471 1.94547 0
-1.32668 1.85215 0
-1.23489 1.73272 0
-1.14471 1.94547 0
-1.06478 1.81773 0
-1.40501 1.64771 0
-1.30135 1.53659 0
-1.23489 1.73272 0
-1.1431 1.61328 0
-1.30135 1.53659 0
-1.19769 1.42547 0
-1.1431 1.61328 0
-1.05131 1.49385 0
-1.23489 1.73272 0
-1.1431 1.61328 0
-1.06478 1.81773 0
-0.984854 1.68998 0
-1.1431 1.61328 0
-1.05131 1.49385 0
-0.984854 1.68998 0
-0.904927 1.56223 0
-1.22463 2.07322 0
-1.14471 1.94547 0
-1.03079 2.17486 0
-0.96273 2.0388 0
-1.14471 1.94547 0
-1.06478 1.81773 0
-0.96273 2.0388 0
-0.894668 1.90274 0
-1.03079 2.17486 0
-0.96273 2.0388 0
-0.83695 2.2765 0
-0.780753 2.13212 0
-0.96273 2.0388 0
-0.894668 1.90274 0
-0.780753 2.13212 0
-0.724555 1.98775 0
-1.06478 1.81773 0
-0.984854 1.68998 0
-0.894668 1.90274 0
-0.826606 1.76668 0
-0.984854 1.68998 0
-0.904927 1.56223 0
-0.826606 1.76668 0
-0.758544 1.63061 0
-0.894668 1.90274 0
-0.826606 1.76668 0
-0.724555 1.98775 0
-0.668358 1.84337 0
-0.826606 1.76668 0
-0.758544 1.63061 0
-0.668358 1.84337 0
-0.61216 1.699 0
-0.83695 2.2765 0
-0.780753 2.13212 0
-0.643108 2.37814 0
-0.598776 2.22545 0
-0.780753 2.13212 0
-0.724555 1.98775 0
-0.598776 2.22545 0
-0.554443 2.07276 0
-0.643108 2.37814 0
-0.598776 2.22545 0
-0.449267 2.47977 0
-0.416798 2.31877 0
-0.598776 2.22545 0
-0.554443 2.07276 0
-0.416798 2.31877 0
-0.38433 2.15777 0
-0.724555 1.98775 0
-0.668358 1.84337 0
-0.554443 2.07276 0
-0.51011 1.92007 0
-0.668358 1.84337 0
-0.61216 1.699 0
-0.51011 1.92007 0
-0.465777 1.76738 0
-0.554443 2.07276 0
-0.51011 1.92007 0
-0.38433 2.15777 0
-0.351862 1.99677 0
-0.51011 1.92007 0
-0.465777 1.76738 0
-0.351862 1.99677 0
-0.319393 1.83576 0
-0.550634 9.86238 0
-0.407897 9.94784 0
-0.631723 10.0179 0
-0.496557 10.0998 0
-0.407897 9.94784 0
-0.26516 10.0333 0
[...]
POINT_DATA 36864
SCALARS solution double 1
LOOKUP_TABLE default
1.08397e+06 1.0873e+06 1.29759e+06 1.29958e+06 1.0873e+06 1.08865e+06 1.29958e+06 1.29914e+06 1.29759e+06 1.29958e+06 1.48832e+06 1.48808e+06 1.29958e+06 1.29914e+06 1.48808e+06 1.48497e+06 1.08865e+06 1.08814e+06 1.29914e+06 1.2964e+06 1.08814e+06 1.08586e+06 1.2964e+06 1.2915e+06 1.29914e+06 1.2964e+06 1.48497e+06 1.47916e+06 1.2964e+06 1.2915e+06 1.47916e+06 1.4708e+06 1.48832e+06 1.48808e+06 1.65618e+06 1.6528e+06 1.48808e+06 1.48497e+06 1.6528e+06 1.64614e+06 1.65618e+06 1.6528e+06 1.80118e+06 1.79372e+06 1.6528e+06 1.64614e+06 1.79372e+06 1.7826e+06 1.48497e+06 1.47916e+06 1.64614e+06 1.63645e+06 1.47916e+06 1.4708e+06 1.63645e+06 1.62379e+06 1.64614e+06 1.63645e+06 1.7826e+06 1.76812e+06 1.63645e+06 1.62379e+06 1.76812e+06 1.751e+06 431.641 425.22 305655 307760 425.22 418.848 307760 309354 305655 307760 588004 591376 307760 309354 591376 593740 418.848 412.524 309354 310467 412.524 406.25 310467 311138 309354 310467 593740 595146 310467 311138 595146 595642 588004 591376 847445 851229 591376 593740 851229 853516 847445 851229 1.08397e+06 1.0873e+06 851229 853516 1.0873e+06 1.08865e+06 593740 595146 853516 854381 595146 595642 854381 853899 853516 854381 1.08865e+06 1.08814e+06 854381 853899 1.08814e+06 1.08586e+06 457.812 451.196 291601 296027 451.196 444.629 296027 299816 291601 296027 563356 571303 296027 299816 571303 578022 444.629 438.11 299816 303016 438.11 431.641 303016 305655 299816 303016 578022 583570 303016 305655 583570 588004 563356 571303 815707 826300 571303 578022 826300 835064 815707 826300 1.0487e+06 1.06105e+06 826300 835064 1.06105e+06 1.07096e+06 578022 583570 835064 842084 583570 588004 842084 847445 835064 842084 1.07096e+06 1.07856e+06 842084 847445 1.07856e+06 1.08397e+06 1.0487e+06 1.06105e+06 1.2624e+06 1.27559e+06 1.06105e+06 1.07096e+06 1.27559e+06 1.28575e+06 1.2624e+06 1.27559e+06 1.45688e+06 1.46999e+06 1.27559e+06 1.28575e+06 1.46999e+06 1.47947e+06 1.07096e+06 1.07856e+06 1.28575e+06 1.29303e+06 1.07856e+06 1.08397e+06 1.29303e+06 1.29759e+06 1.28575e+06 1.29303e+06 1.47947e+06 1.48552e+06 1.29303e+06 1.29759e+06 1.48552e+06 1.48832e+06 1.45688e+06 1.46999e+06 1.63222e+06 1.64431e+06 1.46999e+06 1.47947e+06 1.64431e+06 1.65218e+06 1.63222e+06 1.64431e+06 1.78845e+06 1.79862e+06 1.64431e+06 1.65218e+06 1.79862e+06 1.80392e+06 1.47947e+06 1.48552e+06 1.65218e+06 1.65606e+06 1.48552e+06 1.48832e+06 1.65606e+06 1.65618e+06 1.65218e+06 1.65606e+06 1.80392e+06 1.80467e+06 1.65606e+06 1.65618e+06 1.80467e+06 1.80118e+06 756.141 732.424 860.177 814.561 732.424 707.549 814.561 771.098 860.177 814.561 960.914 893.159 814.561 771.098 893.159 831.171 707.549 682.454 771.098 730.38 682.454 657.929 730.38 692.881 771.098 730.38 831.171 775.102 730.38 692.881 775.102 725.03 960.914 893.159 1056.65 967.058 893.159 831.171 967.058 887.006 1056.65 967.058 1145.58 1035.04 967.058 887.006 1035.04 937.815 831.171 775.102 887.006 816.151 775.102 725.03 816.151 754.112 887.006 816.151 937.815 853.03 816.151 754.112 853.03 779.887 336.293 389.196 439.266 475.338 389.196 432.65 475.338 503.163 439.266 475.338 544.331 561.834 475.338 503.163 561.834 572.898 432.65 467.73 503.163 523.954 467.73 495.333 523.954 538.927 503.163 523.954 572.898 578.803 523.954 538.927 578.803 580.692 544.331 561.834 650.381 647.841 561.834 572.898 647.841 641.25 650.381 647.841 756.141 732.424 647.841 641.25 732.424 707.549 572.898 578.803 641.25 631.78 578.803 580.692 631.78 620.444 641.25 631.78 707.549 682.454 631.78 620.444 682.454 657.929 6.77778 109.268 183.917 267.559 109.268 197.539 267.559 336.889 183.917 267.559 379.265 438.268 267.559 336.889 438.268 484.202 197.539 272.805 336.889 393.602 272.805 336.293 393.602 439.266 336.889 393.602 484.202 518.977 393.602 439.266 518.977 544.331 379.265 438.268 590.544 619.436 438.268 484.202 619.436 637.792 590.544 619.436 814.539 808.396 619.436 637.792 808.396 795.511 484.202 518.977 637.792 647.536 518.977 544.331 647.536 650.381 637.792 647.536 795.511 777.598 647.536 650.381 777.598 756.141 814.539 808.396 1047.06 1001.82 808.396 795.511 1001.82 954.786 1047.06 1001.82 1282.98 1195.78 1001.82 954.786 1195.78 1112.64 795.511 777.598 954.786 907.214 777.598 756.141 907.214 860.177 954.786 907.214 1112.64 1034.19 907.214 860.177 1034.19 960.914 1282.98 1195.78 1516.3 1385.73 1195.78 1112.64 1385.73 1265.72 1516.3 1385.73 1740.12 1566.57 1385.73 1265.72 1566.57 1410.35 1112.64 1034.19 1265.72 1156.11 1034.19 960.914 1156.11 1056.65 1265.72 1156.11 1410.35 1270.36 1156.11 1056.65 1270.36 1145.58 91000.8 97775.7 94170.7 101553 97775.7 103781 101553 108252 94170.7 101553 96967.2 104924 101553 108252 104924 112284 103781 108910 108252 114173 108910 113050 114173 119216 108252 114173 112284 118962 114173 119216 118962 124869 96967.2 104924 99315.4 107804 104924 112284 107804 115780 99315.4 107804 101134 110103 107804 115780 110103 118639 112284 118962 115780 123168 118962 124869 123168 129892 115780 123168 118639 126678 123168 129892 126678 134150 75853.3 80032.6 79899 84738.1 80032.6 83103.2 84738.1 88551 79899 84738.1 83806.5 89302.4 84738.1 88551 89302.4 93856.2 83103.2 84916.9 88551 91199.9 84916.9 85355.5 91199.9 92526.1 88551 91199.9 93856.2 97337 91199.9 92526.1 97337 99608.2 83806.5 89302.4 87525.6 93669.1 89302.4 93856.2 93669.1 98956.1 87525.6 93669.1 91000.8 97775.7 93669.1 98956.1 97775.7 103781 93856.2 97337 98956.1 103268 97337 99608.2 103268 106481 98956.1 103268 103781 108910 103268 106481 108910 113050 50862.4 58083.4 52894.6 60544.5 58083.4 64741.8 60544.5 67675.2 52894.6 60544.5 54815.9 62885.6 60544.5 67675.2 62885.6 70481.1 64741.8 70709.8 67675.2 74168.1 70709.8 75853.3 74168.1 79899 67675.2 74168.1 70481.1 77492.9 74168.1 79899 77492.9 83806.5 54815.9 62885.6 56596.5 65072.7 62885.6 70481.1 65072.7 73120.5 56596.5 65072.7 58204.2 67068.4 65072.7 73120.5 67068.4 75550.4 70481.1 77492.9 73120.5 80639.6 77492.9 83806.5 80639.6 87525.6 73120.5 80639.6 75550.4 83559.4 80639.6 87525.6 83559.4 91000.8 58204.2 67068.4 59603.5 68831.6 67068.4 75550.4 68831.6 77723.5 59603.5 68831.6 60757.1 70317.3 68831.6 77723.5 70317.3 79588.7 75550.4 83559.4 77723.5 86198.2 83559.4 91000.8 86198.2 94170.7 77723.5 86198.2 79588.7 88495.9 86198.2 94170.7 88495.9 96967.2 60757.1 70317.3 61618.8 71484.5 70317.3 79588.7 71484.5 81085.8 61618.8 71484.5 62209.7 72253 71484.5 81085.8 72253 82147.5 79588.7 88495.9 81085.8 90385.8 88495.9 96967.2 90385.8 99315.4 81085.8 90385.8 82147.5 91794.7 90385.8 99315.4 91794.7 101134 53290.2 55615.3 58338.7 61049.3 55615.3 57149.3 61049.3 62895.9 58338.7 61049.3 63766.2 66910.6 61049.3 62895.9 66910.6 69114.2 57149.3 57799.9 62895.9 63774.1 57799.9 57473.7 63774.1 63576.4 62895.9 63774.1 69114.2 70258 63774.1 63576.4 70258 70219.8 63766.2 66910.6 69595.9 73228.2 66910.6 69114.2 73228.2 75838 69595.9 73228.2 75853.3 80032.6 73228.2 75838 80032.6 83103.2 69114.2 70258 75838 77292.6 70258 70219.8 77292.6 77448.8 75838 77292.6 83103.2 84916.9 77292.6 77448.8 84916.9 85355.5 36465.2 37646.5 40204.7 41620.2 37646.5 38283.2 41620.2 42435.7 40204.7 41620.2 44243.1 45924.8 41620.2 42435.7 45924.8 46947.1 38283.2 38322.5 42435.7 42590 38322.5 37711.6 42590 42021.3 42435.7 42590 46947.1 47239.5 42590 42021.3 47239.5 46731.1 44243.1 45924.8 48598.5 50582.2 45924.8 46947.1 50582.2 51842.7 48598.5 50582.2 53290.2 55615.3 50582.2 51842.7 55615.3 57149.3 46947.1 47239.5 51842.7 52299.4 47239.5 46731.1 52299.4 51870.7 51842.7 52299.4 57149.3 57799.9 52299.4 51870.7 57799.9 57473.7 27343.4 30179.7 29745.8 32961.9 30179.7 32679.7 32961.9 35816 29745.8 32961.9 32294 35930.5 32961.9 35816 35930.5 39178.2 32679.7 34792.2 35816 38250 34792.2 36465.2 38250 40204.7 35816 38250 39178.2 41971.4 38250 40204.7 41971.4 44243.1 32294 35930.5 34992.5 39093.1 35930.5 39178.2 39093.1 42777.2 34992.5 39093.1 37844.9 42457 39093.1 42777.2 42457 46624.3 39178.2 41971.4 42777.2 45970.9 41971.4 44243.1 45970.9 48598.5 42777.2 45970.9 46624.3 50263.9 45970.9 48598.5 50263.9 53290.2 37844.9 42457 40854.8 46030 42457 46624.3 46030 50731.4 40854.8 46030 44025.6 49819.8 46030 50731.4 49819.8 55111.1 46624.3 50263.9 50731.4 54866.4 50263.9 53290.2 54866.4 58338.7 50731.4 54866.4 55111.1 59795.8 54866.4 58338.7 59795.8 63766.2 44025.6 49819.8 47360.6 53834.6 49819.8 55111.1 53834.6 59776.5 47360.6 53834.6 50862.4 58083.4 53834.6 59776.5 58083.4 64741.8 55111.1 59795.8 59776.5 65070.4 59795.8 63766.2 65070.4 69595.9 59776.5 65070.4 64741.8 70709.8 65070.4 69595.9 70709.8 75853.3 40002.2 44205.1 46359.8 51253.3 44205.1 48783.9 51253.3 56584.3 46359.8 51253.3 51355.6 56795.2 51253.3 56584.3 56795.2 62721.6 48783.9 53770.3 56584.3 62388.3 53770.3 59200.5 62388.3 68705.6 56584.3 62388.3 62721.6 69171.7 62388.3 68705.6 69171.7 76186.3 51355.6 56795.2 55041.4 60883.6 56795.2 62721.6 60883.6 67246.7 55041.4 60883.6 57473.7 63576.4 60883.6 67246.7 63576.4 70219.8 62721.6 69171.7 67246.7 74178.2 69171.7 76186.3 74178.2 81702.1 67246.7 74178.2 70219.8 77448.8 74178.2 81702.1 77448.8 85355.5 88.0278 91.8906 12312.5 13579 91.8906 95.8403 13579 14958.2 12312.5 13579 23018 25406.6 13579 14958.2 25406.6 28008.5 95.8403 99.8767 14958.2 16461.3 99.8767 104 16461.3 18107.4 14958.2 16461.3 28008.5 30843.6 16461.3 18107.4 30843.6 33935.1 23018 25406.6 32235.6 35603.5 25406.6 28008.5 35603.5 39272.4 32235.6 35603.5 40002.2 44205.1 35603.5 39272.4 44205.1 48783.9 28008.5 30843.6 39272.4 43268.9 30843.6 33935.1 43268.9 47623.2 39272.4 43268.9 48783.9 53770.3 43268.9 47623.2 53770.3 59200.5 73.4444 76.9601 8206.92 9103.53 76.9601 80.5625 9103.53 10082.3 8206.92 9103.53 15283.9 16971.6 9103.53 10082.3 16971.6 18814.8 80.5625 84.2517 10082.3 11149.6 84.2517 88.0278 11149.6 12312.5 10082.3 11149.6 18814.8 20825.7 11149.6 12312.5 20825.7 23018 15283.9 16971.6 21339.6 23715.8 16971.6 18814.8 23715.8 26311.9 21339.6 23715.8 26411.8 29374.2 23715.8 26311.9 29374.2 32611.7 18814.8 20825.7 26311.9 29145.4 20825.7 23018 29145.4 32235.6 26311.9 29145.4 32611.7 36146.4 29145.4 32235.6 36146.4 40002.2 26411.8 29374.2 30541.1 33988.2 29374.2 32611.7 33988.2 37756.3 30541.1 33988.2 33770.4 37602.4 33988.2 37756.3 37602.4 41791.3 32611.7 36146.4 37756.3 41870.9 36146.4 40002.2 41870.9 46359.8 37756.3 41870.9 41791.3 46365.5 41870.9 46359.8 46365.5 51355.6 33770.4 37602.4 36144.8 40263.6 37602.4 41791.3 40263.6 44765.6 36144.8 40263.6 37711.6 42021.3 40263.6 44765.6 42021.3 46731.1 41791.3 46365.5 44765.6 49680.7 46365.5 51355.6 49680.7 55041.4 44765.6 49680.7 46731.1 51870.7 49680.7 55041.4 51870.7 57473.7 165.243 32518.8 162.186 30839.9 32518.8 63415.3 30839.9 60420.9 162.186 30839.9 159.159 29436 30839.9 60420.9 29436 57704 63415.3 92961.5 60420.9 88748.6 92961.5 121100 88748.6 115765 60420.9 88748.6 57704 84843.3 88748.6 115765 84843.3 110765 159.159 29436 156.16 28178.1 29436 57704 28178.1 55229.5 156.16 28178.1 153.191 27090.1 28178.1 55229.5 27090.1 52966.4 57704 84843.3 55229.5 81216.7 84843.3 110765 81216.7 106072 55229.5 81216.7 52966.4 77843.2 81216.7 106072 77843.2 101662 121100 147771 115765 141408 147771 172913 141408 165614 115765 141408 110765 135401 141408 165614 135401 158691 172913 196471 165614 188325 196471 218392 188325 209487 165614 188325 158691 180572 188325 209487 180572 200985 110765 135401 106072 129726 135401 158691 129726 152119 106072 129726 101662 124360 129726 152119 124360 145874 158691 180572 152119 173193 180572 200985 173193 192870 152119 173193 145874 166147 173193 192870 166147 185161 144979 176368 138390 168567 176368 205766 168567 196877 138390 168567 132237 161221 168567 196877 161221 188457 205766 233134 196877 223277 233134 258437 223277 247722 196877 223277 188457 213895 223277 247722 213895 237491 132237 161221 126485 154298 161221 188457 154298 180477 126485 154298 121100 147771 154298 180477 147771 172913 188457 213895 180477 204968 213895 237491 204968 227721 180477 204968 172913 196471 204968 227721 196471 218392 177.785 39323.1 174.606 37175.4 39323.1 76411.1 37175.4 72643.2 174.606 37175.4 171.456 35409.9 37175.4 72643.2 35409.9 69254 76411.1 111645 72643.2 106397 111645 144979 106397 138390 72643.2 106397 69254 101561 106397 138390 101561 132237 171.456 35409.9 168.335 33845.8 35409.9 69254 33845.8 66192.5 168.335 33845.8 165.243 32518.8 33845.8 66192.5 32518.8 63415.3 69254 101561 66192.5 97094.4 101561 132237 97094.4 126485 66192.5 97094.4 63415.3 92961.5 97094.4 126485 92961.5 121100 7537.48 6678.14 8303.7 7357.81 6678.14 5902.24 7357.81 6503.71 8303.7 7357.81 8982.41 7960.39 7357.81 6503.71 7960.39 7037.44 5902.24 5203.72 6503.71 5734.72 5203.72 4576.86 5734.72 5044.44 6503.71 5734.72 7037.44 6206.3 5734.72 5044.44 6206.3 5460.05 8982.41 7960.39 9556.59 8470.53 7960.39 7037.44 8470.53 7489.59 9556.59 8470.53 10009 8872.65 8470.53 7489.59 8872.65 7846.16 7037.44 6206.3 7489.59 6606.06 6206.3 5460.05 6606.06 5812.56 7489.59 6606.06 7846.16 6921.42 6606.06 5812.56 6921.42 6090.73 11939.3 10680.5 13149.9 11763.7 10680.5 9531.95 11763.7 10499.2 13149.9 11763.7 14218.5 12720.7 11763.7 10499.2 12720.7 11354.4 9531.95 8486.56 10499.2 9348.38 8486.56 7537.48 9348.38 8303.7 10499.2 9348.38 11354.4 10111.1 9348.38 8303.7 10111.1 8982.41 14218.5 12720.7 15120.1 13528.5 12720.7 11354.4 13528.5 12076.9 15120.1 13528.5 15829.1 14164.2 13528.5 12076.9 14164.2 12645.6 11354.4 10111.1 12076.9 10755.9 10111.1 8982.41 10755.9 9556.59 12076.9 10755.9 12645.6 11263.7 10755.9 9556.59 11263.7 10009 15829.1 14164.2 16320.2 14604.3 14164.2 12645.6 14604.3 13039.4 16320.2 14604.3 16567.5 14825.6 14604.3 13039.4 14825.6 13237.1 12645.6 11263.7 13039.4 11615.3 11263.7 10009 11615.3 10322.2 13039.4 11615.3 13237.1 11791.5 11615.3 10322.2 11791.5 10479 16567.5 14825.6 16545.5 14804.8 14825.6 13237.1 14804.8 13217.5 16545.5 14804.8 16228.9 14518.7 14804.8 13217.5 14518.7 12959.6 13237.1 11791.5 13217.5 11773.2 11791.5 10479 11773.2 10461.9 13217.5 11773.2 12959.6 11541.3 11773.2 10461.9 11541.3 10253.9 10009 8872.65 10322.2 9151.1 8872.65 7846.16 9151.1 8093.05 10322.2 9151.1 10479 9290.21 9151.1 8093.05 9290.21 8216.17 7846.16 6921.42 8093.05 7139.75 6921.42 6090.73 7139.75 6283.23 8093.05 7139.75 8216.17 7248.37 7139.75 6283.23 7248.37 6378.74 10479 9290.21 10461.9 9274.37 9290.21 8216.17 9274.37 8201.48 10461.9 9274.37 10253.9 9088.17 9274.37 8201.48 9088.17 8035.12 8216.17 7248.37 8201.48 7234.71 7248.37 6378.74 7234.71 6366 8201.48 7234.71 8035.12 7086.37 7234.71 6366 7086.37 6233.91 1309.82 1158.47 1312.39 1155.65 1158.47 1027.25 1155.65 1020.16 1312.39 1155.65 1297.06 1137.49 1155.65 1020.16 1137.49 999.917 1027.25 914.298 1020.16 903.843 914.298 817.92 903.843 804.84 1020.16 903.843 999.917 882.123 903.843 804.84 882.123 782.099 1297.06 1137.49 1262.76 1103.21 1137.49 999.917 1103.21 966.001 1262.76 1103.21 1208.55 1052.16 1103.21 966.001 1052.16 917.983 999.917 882.123 966.001 848.802 882.123 782.099 848.802 749.51 966.001 848.802 917.983 803.635 848.802 749.51 803.635 706.969 1145.58 1035.04 1207.02 1084.01 1035.04 937.815 1084.01 976.272 1207.02 1084.01 1255.82 1121.64 1084.01 976.272 1121.64 1004.56 937.815 853.03 976.272 882.667 853.03 779.887 882.667 802.167 976.272 882.667 1004.56 903.174 882.667 802.167 903.174 816.216 1255.82 1121.64 1290.54 1146.81 1121.64 1004.56 1146.81 1021.81 1290.54 1146.81 1309.82 1158.47 1146.81 1021.81 1158.47 1027.25 1004.56 903.174 1021.81 913.908 903.174 816.216 913.908 821.601 1021.81 913.908 1027.25 914.298 913.908 821.601 914.298 817.92 1740.12 1566.57 1877.15 1680.23 1566.57 1410.35 1680.23 1503.8 1877.15 1680.23 1995.04 1776.47 1680.23 1503.8 1776.47 1581.58 1410.35 1270.36 1503.8 1346.52 1270.36 1145.58 1346.52 1207.02 1503.8 1346.52 1581.58 1408.6 1346.52 1207.02 1408.6 1255.82 1995.04 1776.47 2090.34 1852.58 1776.47 1581.58 1852.58 1641.45 2090.34 1852.58 2159.68 1905.83 1852.58 1641.45 1905.83 1681.23 1581.58 1408.6 1641.45 1454.78 1408.6 1255.82 1454.78 1290.54 1641.45 1454.78 1681.23 1483.34 1454.78 1290.54 1483.34 1309.82 2159.68 1905.83 2199.74 1933.56 1905.83 1681.23 1933.56 1698.8 2199.74 1933.56 2207.29 1933.19 1933.56 1698.8 1933.19 1692.14 1681.23 1483.34 1698.8 1492.62 1483.34 1309.82 1492.62 1312.39 1698.8 1492.62 1692.14 1481.06 1492.62 1312.39 1481.06 1297.06 2207.29 1933.19 2179.2 1902.27 1933.19 1692.14 1902.27 1659.37 2179.2 1902.27 2112.51 1838.5 1902.27 1659.37 1838.5 1598.72 1692.14 1481.06 1659.37 1447.21 1481.06 1297.06 1447.21 1262.76 1659.37 1447.21 1598.72 1389.78 1447.21 1262.76 1389.78 1208.55 17606.3 20354.4 15835.3 18305.3 20354.4 22504.6 18305.3 20237.7 15835.3 18305.3 14213.7 16429 18305.3 20237.7 16429 18161.9 22504.6 24088.3 20237.7 21661.2 24088.3 25138.3 21661.2 22605.4 20237.7 21661.2 18161.9 19438.4 21661.2 22605.4 19438.4 20285.5 14213.7 16429 12731.4 14713.9 16429 18161.9 14713.9 16264.5 12731.4 14713.9 11378.8 13149 14713.9 16264.5 13149 14533.2 18161.9 19438.4 16264.5 17406.5 19438.4 20285.5 17406.5 18164.4 16264.5 17406.5 14533.2 15552.4 17406.5 18164.4 15552.4 16228.9 26411.8 30541.1 23927.5 27667.4 30541.1 33770.4 27667.4 30593 23927.5 27667.4 21640.5 25021.8 27667.4 30593 25021.8 27667.2 33770.4 36144.8 30593 32745.6 36144.8 37711.6 32745.6 34168.8 30593 32745.6 27667.2 29614.8 32745.6 34168.8 29614.8 30903.7 21640.5 25021.8 19537.5 22588.8 25021.8 27667.2 22588.8 24976.3 19537.5 22588.8 17606.3 20354.4 22588.8 24976.3 20354.4 22504.6 27667.2 29614.8 24976.3 26734.4 29614.8 30903.7 26734.4 27899.1 24976.3 26734.4 22504.6 24088.3 26734.4 27899.1 24088.3 25138.3 73.4444 8206.92 70.0156 7438.46 8206.92 15283.9 7438.46 13849 70.0156 7438.46 66.6736 6731.08 7438.46 13849 6731.08 12528.1 15283.9 21339.6 13849 19333.7 21339.6 26411.8 19333.7 23927.5 13849 19333.7 12528.1 17487.3 19333.7 23927.5 17487.3 21640.5 66.6736 6731.08 63.4184 6080.52 6731.08 12528.1 6080.52 11313.5 63.4184 6080.52 60.25 5482.95 6080.52 11313.5 5482.95 10198.1 12528.1 17487.3 11313.5 15789.5 17487.3 21640.5 15789.5 19537.5 11313.5 15789.5 10198.1 14230.3 15789.5 19537.5 14230.3 17606.3 60.25 5482.95 57.1684 4934.79 5482.95 10198.1 4934.79 9175.08 57.1684 4934.79 54.1736 4432.68 4934.79 9175.08 4432.68 8238.25 10198.1 14230.3 9175.08 12800.5 14230.3 17606.3 12800.5 15835.3 9175.08 12800.5 8238.25 11491.3 12800.5 15835.3 11491.3 14213.7 54.1736 4432.68 51.2656 3973.5 4432.68 8238.25 3973.5 7381.73 51.2656 3973.5 48.4444 3554.34 3973.5 7381.73 3554.34 6600.02 8238.25 11491.3 7381.73 10294.4 11491.3 14213.7 10294.4 12731.4 7381.73 10294.4 6600.02 9202.17 10294.4 12731.4 9202.17 11378.8 381.641 220056 375.61 208690 220056 425916 208690 404053 375.61 208690 369.629 197662 208690 404053 197662 382810 425916 617854 404053 586386 617854 795774 586386 755622 404053 586386 382810 555763 586386 755622 555763 716480 369.629 197662 363.696 186976 197662 382810 186976 362200 363.696 186976 357.812 176636 186976 362200 176636 342234 382810 555763 362200 526012 555763 716480 526012 678392 362200 526012 342234 497151 526012 678392 497151 641392 795774 959588 755622 911698 959588 1.10922e+06 911698 1.05456e+06 755622 911698 716480 864923 911698 1.05456e+06 864923 1.00106e+06 1.10922e+06 1.24459e+06 1.05456e+06 1.18416e+06 1.24459e+06 1.36565e+06 1.18416e+06 1.30046e+06 1.05456e+06 1.18416e+06 1.00106e+06 1.12487e+06 1.18416e+06 1.30046e+06 1.12487e+06 1.23633e+06 716480 864923 678392 819328 864923 1.00106e+06 819328 948812 678392 819328 641392 774964 819328 948812 774964 897880 1.00106e+06 1.12487e+06 948812 1.06684e+06 1.12487e+06 1.23633e+06 1.06684e+06 1.17339e+06 948812 1.06684e+06 897880 1.01016e+06 1.06684e+06 1.17339e+06 1.01016e+06 1.11182e+06 965098 1.16031e+06 921642 1.10901e+06 1.16031e+06 1.33679e+06 1.10901e+06 1.2789e+06 921642 1.10901e+06 878865 1.05836e+06 1.10901e+06 1.2789e+06 1.05836e+06 1.22154e+06 1.33679e+06 1.49443e+06 1.2789e+06 1.4312e+06 1.49443e+06 1.63359e+06 1.4312e+06 1.56565e+06 1.2789e+06 1.4312e+06 1.22154e+06 1.36828e+06 1.4312e+06 1.56565e+06 1.36828e+06 1.49845e+06 878865 1.05836e+06 836879 1.00851e+06 1.05836e+06 1.22154e+06 1.00851e+06 1.16492e+06 836879 1.0